312
step: 1
Ru     1.5591187158     0.7203909794    7.0661012000
Ru     0.1812806031     3.1016593502    6.8785624000
Ru    -1.1611892138     5.4367299334    6.8767410000
Ru     4.3265883686     0.7040195091    6.8836062000
Ru     2.9569676970     3.1104601984    6.9130316000
Ru     1.5544993864     5.4598216818    6.8877594000
Ru     7.0138710811     0.7109118467    6.8790782000
Ru     5.6852945547     3.0840029076    6.8933892000
Ru     4.3063006655     5.4405382095    6.8873346000
Ru     0.1891306554     1.5074108988    4.7768400000
Ru    -1.1667715945     3.8753557426    4.8164406000
Ru    -2.5394765671     6.2294423236    4.7906158000
Ru     2.9421029402     1.4873026070    4.7601214000
Ru     1.5612165265     3.8577544016    4.7728040000
Ru     0.1934475767     6.2438684541    4.8032088000
Ru     5.6701212323     1.4960981228    4.8099598000
Ru     4.2916967752     3.8622754452    4.8086780000
Ru     2.9448641032     6.2446140693    4.7792726000
Ru     1.5683010144     0.7100110223    2.6528156000
Ru     0.1999999870     3.0799779218    2.6528156000
Ru    -1.1683009993     5.4499447501    2.6528156000
Ru     4.3049029870     0.7100110223    2.6528156000
Ru     2.9366019597     3.0799779218    2.6528156000
Ru     1.5683009734     5.4499447501    2.6528156000
Ru     7.0415050418     0.7100110223    2.6528156000
Ru     5.6732040144     3.0799779218    2.6528156000
Ru     4.3049030281     5.4499447501    2.6528156000
Ru     0.2000000281     1.4999999651    0.5000000000
Ru    -1.1683009993     3.8699668645    0.5000000000
Ru    -2.5366019856     6.2399336929    0.5000000000
Ru     2.9366020007     1.4999999651    0.5000000000
Ru     1.5683009734     3.8699668645    0.5000000000
Ru     0.1999999870     6.2399336929    0.5000000000
Ru     5.6732040555     1.4999999651    0.5000000000
Ru     4.3049030281     3.8699668645    0.5000000000
Ru     2.9366020418     6.2399336929    0.5000000000
 O     1.4067655283     1.0066505777   10.1639428000
 C     1.4825987675     0.8733771982    8.7934466000
 H     3.2376994682     3.5962249572    8.4509366000
Ru     9.7665783943     0.7362357483    7.0211480000
Ru     8.3840312601     3.1166434656    6.8824908000
Ru     7.0459778262     5.4483867576    6.8772342000
Ru    12.5342183595     0.7093798053    6.8861572000
Ru    11.1634627233     3.1118255126    6.9137098000
Ru     9.7570960274     5.4673261818    6.8814996000
Ru    15.2207677311     0.7141911461    6.8793204000
Ru    13.8923045000     3.0812767584    6.8890610000
Ru    12.5089132745     5.4307034395    6.9110316000
Ru     8.3980660876     1.5067971722    4.7769504000
Ru     7.0419990669     3.8750828646    4.8109068000
Ru     5.6660112802     6.2385197470    4.7886498000
Ru    11.1506490634     1.4900242769    4.7571726000
Ru     9.7695972631     3.8580882115    4.7751826000
Ru     8.3997862883     6.2471144791    4.8008220000
Ru    13.8772422152     1.4967166841    4.8118000000
Ru    12.4974767684     3.8680683078    4.8166302000
Ru    11.1549556813     6.2461800249    4.7836228000
Ru     9.7781070144     0.7100110223    2.6528156000
Ru     8.4098059870     3.0799779218    2.6528156000
Ru     7.0415050007     5.4499447501    2.6528156000
Ru    12.5147089870     0.7100110223    2.6528156000
Ru    11.1464079597     3.0799779218    2.6528156000
Ru     9.7781069734     5.4499447501    2.6528156000
Ru    15.2513110418     0.7100110223    2.6528156000
Ru    13.8830100144     3.0799779218    2.6528156000
Ru    12.5147090281     5.4499447501    2.6528156000
Ru     8.4098060281     1.4999999651    0.5000000000
Ru     7.0415050007     3.8699668645    0.5000000000
Ru     5.6732040144     6.2399336929    0.5000000000
Ru    11.1464080007     1.4999999651    0.5000000000
Ru     9.7781069734     3.8699668645    0.5000000000
Ru     8.4098059870     6.2399336929    0.5000000000
Ru    13.8830100555     1.4999999651    0.5000000000
Ru    12.5147090281     3.8699668645    0.5000000000
Ru    11.1464080418     6.2399336929    0.5000000000
 O     9.5691021838     1.5457462740    9.9863112000
 C     9.6621092287     1.2285095499    8.8141466000
 H    11.7473161717     3.9018148820    8.2979708000
Ru    17.9842650282     0.7529354116    7.0235374000
Ru    16.5913268656     3.1199285241    6.9023416000
Ru    15.2552492036     5.4482896364    6.8707602000
Ru    20.7442905214     0.7073583184    6.8829962000
Ru    19.3559016176     3.0950629267    6.9061788000
Ru    17.9663655986     5.4711683721    6.8827552000
Ru    23.4211592592     0.7074912736    6.8754620000
Ru    22.0928521376     3.0750164909    6.8974222000
Ru    20.7057736419     5.4317164582    6.9200938000
Ru    16.5828391166     1.5214871511    4.7639522000
Ru    15.2457463942     3.8831429322    4.7954658000
Ru    13.8808583064     6.2134380797    4.7555358000
Ru    19.3727921851     1.5119040005    4.7620638000
Ru    17.9792274091     3.8694366082    4.7709598000
Ru    16.6088993396     6.2420031005    4.7958004000
Ru    22.0876906736     1.4939369263    4.8095628000
Ru    20.7201197853     3.8809690802    4.8033972000
Ru    19.3547112778     6.2390359257    4.7862162000
Ru    17.9879130144     0.7100110223    2.6528156000
Ru    16.6196119870     3.0799779218    2.6528156000
Ru    15.2513110007     5.4499447501    2.6528156000
Ru    20.7245149870     0.7100110223    2.6528156000
Ru    19.3562139597     3.0799779218    2.6528156000
Ru    17.9879129734     5.4499447501    2.6528156000
Ru    23.4611170418     0.7100110223    2.6528156000
Ru    22.0928160144     3.0799779218    2.6528156000
Ru    20.7245150281     5.4499447501    2.6528156000
Ru    16.6196120281     1.4999999651    0.5000000000
Ru    15.2513110007     3.8699668645    0.5000000000
Ru    13.8830100144     6.2399336929    0.5000000000
Ru    19.3562140007     1.4999999651    0.5000000000
Ru    17.9879129734     3.8699668645    0.5000000000
Ru    16.6196119870     6.2399336929    0.5000000000
Ru    22.0928160555     1.4999999651    0.5000000000
Ru    20.7245150281     3.8699668645    0.5000000000
Ru    19.3562140418     6.2399336929    0.5000000000
 O    17.8180918227     2.0288805828    9.8114590000
 C    17.8887121634     1.5624641386    8.6533536000
 H    20.2525163690     4.1044987368    8.1197214000
Ru    26.1540555717     0.6783301586    6.9469072000
Ru    24.7743375366     3.0720724944    6.9136310000
Ru    23.4451027068     5.4356392036    6.8758640000
Ru    28.9412894704     0.6772090695    6.8798514000
Ru    27.5051675230     3.0470668320    7.0220462000
Ru    26.1543159457     5.4676036101    6.8800362000
Ru    31.6355428418     0.6876159020    6.8691034000
Ru    30.2920240990     3.0503547344    6.8945646000
Ru    28.9073063331     5.4385141630    6.9114306000
Ru    24.8228417272     1.4942658303    4.7814450000
Ru    23.4464127866     3.8599395585    4.7973374000
Ru    22.0783912211     6.2353227802    4.7808362000
Ru    27.5502006487     1.4857253466    4.7870670000
Ru    26.1829320044     3.8633399395    4.7840986000
Ru    24.8181568835     6.2347084137    4.8037670000
Ru    30.2862300695     1.4992310293    4.7870442000
Ru    28.9325640886     3.8680592071    4.7701024000
Ru    27.5595155767     6.2262023419    4.7829402000
Ru    26.1977190144     0.7100110223    2.6528156000
Ru    24.8294179870     3.0799779218    2.6528156000
Ru    23.4611170007     5.4499447501    2.6528156000
Ru    28.9343209870     0.7100110223    2.6528156000
Ru    27.5660199597     3.0799779218    2.6528156000
Ru    26.1977189734     5.4499447501    2.6528156000
Ru    31.6709230418     0.7100110223    2.6528156000
Ru    30.3026220144     3.0799779218    2.6528156000
Ru    28.9343210281     5.4499447501    2.6528156000
Ru    24.8294180281     1.4999999651    0.5000000000
Ru    23.4611170007     3.8699668645    0.5000000000
Ru    22.0928160144     6.2399336929    0.5000000000
Ru    27.5660200007     1.4999999651    0.5000000000
Ru    26.1977189734     3.8699668645    0.5000000000
Ru    24.8294179870     6.2399336929    0.5000000000
Ru    30.3026220555     1.4999999651    0.5000000000
Ru    28.9343210281     3.8699668645    0.5000000000
Ru    27.5660200418     6.2399336929    0.5000000000
 O    26.1721407891     2.0897755302    9.6808876000
 C    26.4585351508     2.2370352928    8.4416480000
 H    28.4997182816     4.0281580282    8.1053284000
Ru    34.3820063513     0.6761904340    6.9123400000
Ru    32.9922032263     3.0570999681    6.9381854000
Ru    31.6577110010     5.4420306487    6.8680382000
Ru    37.1486216916     0.6765946319    6.8830844000
Ru    35.7429306217     3.0519375404    7.0990538000
Ru    34.3853344835     5.4809641797    6.8858358000
Ru    39.8490194871     0.6930244745    6.8736118000
Ru    38.4876616158     3.0650864483    6.8978808000
Ru    37.1200013227     5.4491510719    6.8935128000
Ru    33.0408015013     1.4975512442    4.7818150000
Ru    31.6559027502     3.8616310749    4.7903906000
Ru    30.2863393009     6.2317030587    4.8011364000
Ru    35.7568017457     1.4899833950    4.7897886000
Ru    34.3893644310     3.8642110445    4.7875594000
Ru    33.0305736018     6.2349838512    4.8070338000
Ru    38.4967648539     1.5090968696    4.7839006000
Ru    37.1346694547     3.8644267589    4.7747522000
Ru    35.7717254079     6.2210325910    4.7857116000
Ru    34.4075250144     0.7100110223    2.6528156000
Ru    33.0392239870     3.0799779218    2.6528156000
Ru    31.6709230007     5.4499447501    2.6528156000
Ru    37.1441269870     0.7100110223    2.6528156000
Ru    35.7758259597     3.0799779218    2.6528156000
Ru    34.4075249734     5.4499447501    2.6528156000
Ru    39.8807290418     0.7100110223    2.6528156000
Ru    38.5124280144     3.0799779218    2.6528156000
Ru    37.1441270281     5.4499447501    2.6528156000
Ru    33.0392240281     1.4999999651    0.5000000000
Ru    31.6709230007     3.8699668645    0.5000000000
Ru    30.3026220144     6.2399336929    0.5000000000
Ru    35.7758260007     1.4999999651    0.5000000000
Ru    34.4075249734     3.8699668645    0.5000000000
Ru    33.0392239870     6.2399336929    0.5000000000
Ru    38.5124280555     1.4999999651    0.5000000000
Ru    37.1441270281     3.8699668645    0.5000000000
Ru    35.7758260418     6.2399336929    0.5000000000
 O    34.1083985572     2.4009106797    9.6822194000
 C    34.5007854550     2.5808941863    8.4858010000
 H    36.5921316088     3.4120163211    8.4368236000
Ru    42.5956418563     0.6675858191    6.9009764000
Ru    41.1982914156     3.0601168411    6.9142112000
Ru    39.8728552221     5.4424728134    6.8644356000
Ru    45.3642632217     0.6720447221    6.8897128000
Ru    43.9601474083     3.0535681961    7.2460742000
Ru    42.5998693317     5.4747438699    6.8938676000
Ru    48.0680865998     0.6917635336    6.8643178000
Ru    46.7358501008     3.0607049010    6.8856212000
Ru    45.3482538948     5.4677143824    6.8855770000
Ru    41.2565663016     1.4967618320    4.7793152000
Ru    39.8656216441     3.8591942276    4.7946100000
Ru    38.5016791617     6.2325436622    4.8016952000
Ru    43.9734713898     1.4987234535    4.7929052000
Ru    42.6095690944     3.8617451177    4.7819336000
Ru    41.2478304933     6.2327803508    4.8095048000
Ru    46.7020696226     1.5006977307    4.7821488000
Ru    45.3351360205     3.8553270105    4.8045790000
Ru    43.9764845938     6.2145005832    4.7868066000
Ru    42.6173310144     0.7100110223    2.6528156000
Ru    41.2490299870     3.0799779218    2.6528156000
Ru    39.8807290007     5.4499447501    2.6528156000
Ru    45.3539329870     0.7100110223    2.6528156000
Ru    43.9856319597     3.0799779218    2.6528156000
Ru    42.6173309734     5.4499447501    2.6528156000
Ru    48.0905350418     0.7100110223    2.6528156000
Ru    46.7222340144     3.0799779218    2.6528156000
Ru    45.3539330281     5.4499447501    2.6528156000
Ru    41.2490300281     1.4999999651    0.5000000000
Ru    39.8807290007     3.8699668645    0.5000000000
Ru    38.5124280144     6.2399336929    0.5000000000
Ru    43.9856320007     1.4999999651    0.5000000000
Ru    42.6173309734     3.8699668645    0.5000000000
Ru    41.2490299870     6.2399336929    0.5000000000
Ru    46.7222340555     1.4999999651    0.5000000000
Ru    45.3539330281     3.8699668645    0.5000000000
Ru    43.9856320418     6.2399336929    0.5000000000
 O    42.1378079449     2.4643177683    9.6458602000
 C    42.7167037377     2.6372869313    8.5869372000
 H    44.3649612842     3.1962068789    8.7699960000
Ru    50.8078279612     0.6574846412    6.8884572000
Ru    49.4006507111     3.0652032640    6.9153824000
Ru    48.0836012449     5.4417695020    6.8673518000
Ru    53.5716832058     0.6694877175    6.8775798000
Ru    52.1169389144     3.0254491082    7.1951978000
Ru    50.8091778175     5.4690585091    6.8807244000
Ru    56.2752637789     0.6869725271    6.8626230000
Ru    54.9111445804     3.0642292076    6.8739790000
Ru    53.5549291674     5.4425601230    6.8791352000
Ru    49.4582255059     1.4980921655    4.7839714000
Ru    48.0834488298     3.8538281724    4.8093258000
Ru    46.7123421423     6.2352983932    4.8125610000
Ru    52.1856728880     1.4918580625    4.8043580000
Ru    50.8217378355     3.8603762486    4.8034894000
Ru    49.4602179437     6.2295990258    4.7932944000
Ru    54.9204537615     1.5006039511    4.7802638000
Ru    53.5645312744     3.8626560382    4.7679192000
Ru    52.1898573851     6.2209718014    4.7846376000
Ru    50.8271370144     0.7100110223    2.6528156000
Ru    49.4588359870     3.0799779218    2.6528156000
Ru    48.0905350007     5.4499447501    2.6528156000
Ru    53.5637389870     0.7100110223    2.6528156000
Ru    52.1954379597     3.0799779218    2.6528156000
Ru    50.8271369734     5.4499447501    2.6528156000
Ru    56.3003410418     0.7100110223    2.6528156000
Ru    54.9320400144     3.0799779218    2.6528156000
Ru    53.5637390281     5.4499447501    2.6528156000
Ru    49.4588360281     1.4999999651    0.5000000000
Ru    48.0905350007     3.8699668645    0.5000000000
Ru    46.7222340144     6.2399336929    0.5000000000
Ru    52.1954380007     1.4999999651    0.5000000000
Ru    50.8271369734     3.8699668645    0.5000000000
Ru    49.4588359870     6.2399336929    0.5000000000
Ru    54.9320400555     1.4999999651    0.5000000000
Ru    53.5637390281     3.8699668645    0.5000000000
Ru    52.1954380418     6.2399336929    0.5000000000
 O    50.2649796614     2.4114352522    9.5195610000
 C    51.3079652378     2.7497945665    8.6919846000
 H    52.2357019680     3.0958159362    9.0479552000
Ru    59.0275888025     0.6545641073    6.8840526000
Ru    57.6512949954     3.0266671764    6.9969772000
Ru    56.2940770419     5.4375373337    6.8767432000
Ru    61.7828668934     0.6866969474    6.8837218000
Ru    60.3269357103     3.0534139113    7.0431166000
Ru    59.0300756759     5.4700746561    6.8849498000
Ru    64.4890863443     0.6799264735    6.8732708000
Ru    63.1010090027     3.0589285635    6.8787644000
Ru    61.7657100818     5.4311763190    6.8648068000
Ru    57.6681254261     1.5115591703    4.7922388000
Ru    56.3086913997     3.8522594439    4.8031774000
Ru    54.9328935469     6.2355960137    4.8177112000
Ru    60.4017325436     1.4805554536    4.7661916000
Ru    59.0210525655     3.8577524820    4.7812522000
Ru    57.6656436838     6.2253201455    4.8011832000
Ru    63.1418583702     1.5029437483    4.7830122000
Ru    61.7852503642     3.8640301687    4.7598140000
Ru    60.3994058024     6.2292898874    4.7947384000
Ru    59.0369430144     0.7100110223    2.6528156000
Ru    57.6686419870     3.0799779218    2.6528156000
Ru    56.3003410007     5.4499447501    2.6528156000
Ru    61.7735449870     0.7100110223    2.6528156000
Ru    60.4052439597     3.0799779218    2.6528156000
Ru    59.0369429734     5.4499447501    2.6528156000
Ru    64.5101470418     0.7100110223    2.6528156000
Ru    63.1418460144     3.0799779218    2.6528156000
Ru    61.7735450281     5.4499447501    2.6528156000
Ru    57.6686420281     1.4999999651    0.5000000000
Ru    56.3003410007     3.8699668645    0.5000000000
Ru    54.9320400144     6.2399336929    0.5000000000
Ru    60.4052440007     1.4999999651    0.5000000000
Ru    59.0369429734     3.8699668645    0.5000000000
Ru    57.6686419870     6.2399336929    0.5000000000
Ru    63.1418460555     1.4999999651    0.5000000000
Ru    61.7735450281     3.8699668645    0.5000000000
Ru    60.4052440418     6.2399336929    0.5000000000
 O    58.4196414618     2.7899289598    8.9652672000
 C    59.5795837703     2.9004785284    8.8031822000
 H    60.2625424254     2.9347395750    9.6981060000
312
step: 2
Ru     1.5597454935     0.7195033083    7.0514714000
Ru     0.1814407765     3.1016688775    6.8789154000
Ru    -1.1612791932     5.4370309666    6.8769402000
Ru     4.3264773310     0.7043964049    6.8839106000
Ru     2.9571512272     3.1106941852    6.9116812000
Ru     1.5542794046     5.4599854228    6.8874032000
Ru     7.0139727185     0.7110812045    6.8792868000
Ru     5.6854160187     3.0839630210    6.8928626000
Ru     4.3066108730     5.4408238142    6.8877666000
Ru     0.1893661127     1.5073537352    4.7763040000
Ru    -1.1667310381     3.8752822262    4.8163750000
Ru    -2.5394895386     6.2299219575    4.7900344000
Ru     2.9420506848     1.4869186013    4.7591950000
Ru     1.5612816303     3.8573826960    4.7730454000
Ru     0.1932103543     6.2439879715    4.8031616000
Ru     5.6700831798     1.4961091431    4.8102502000
Ru     4.2912308277     3.8620425960    4.8096404000
Ru     2.9450725502     6.2446816134    4.7794176000
Ru     1.5683010144     0.7100110223    2.6528156000
Ru     0.1999999870     3.0799779218    2.6528156000
Ru    -1.1683009993     5.4499447501    2.6528156000
Ru     4.3049029870     0.7100110223    2.6528156000
Ru     2.9366019597     3.0799779218    2.6528156000
Ru     1.5683009734     5.4499447501    2.6528156000
Ru     7.0415050418     0.7100110223    2.6528156000
Ru     5.6732040144     3.0799779218    2.6528156000
Ru     4.3049030281     5.4499447501    2.6528156000
Ru     0.2000000281     1.4999999651    0.5000000000
Ru    -1.1683009993     3.8699668645    0.5000000000
Ru    -2.5366019856     6.2399336929    0.5000000000
Ru     2.9366020007     1.4999999651    0.5000000000
Ru     1.5683009734     3.8699668645    0.5000000000
Ru     0.1999999870     6.2399336929    0.5000000000
Ru     5.6732040555     1.4999999651    0.5000000000
Ru     4.3049030281     3.8699668645    0.5000000000
Ru     2.9366020418     6.2399336929    0.5000000000
 O     1.4090156309     1.0102867941   10.1166898000
 C     1.4794595429     0.8842384955    8.8558424000
 H     3.2446150393     3.6084237691    8.4497194000
Ru     9.7665949371     0.7357904552    7.0195592000
Ru     8.3840393467     3.1165404432    6.8823696000
Ru     7.0459408000     5.4482966041    6.8773850000
Ru    12.5341764895     0.7093543519    6.8860766000
Ru    11.1632903584     3.1115111839    6.9134222000
Ru     9.7570261619     5.4672559360    6.8815040000
Ru    15.2208744586     0.7140802317    6.8796084000
Ru    13.8923721898     3.0811883823    6.8888870000
Ru    12.5089652836     5.4307558395    6.9108086000
Ru     8.3983006007     1.5067449145    4.7769028000
Ru     7.0419536256     3.8750600418    4.8110138000
Ru     5.6661046257     6.2383887826    4.7887762000
Ru    11.1504806802     1.4898200806    4.7572748000
Ru     9.7696404878     3.8580127754    4.7753718000
Ru     8.3997667900     6.2470720330    4.8008346000
Ru    13.8772638480     1.4968299448    4.8117210000
Ru    12.4974243078     3.8680016169    4.8169592000
Ru    11.1549938158     6.2461563490    4.7835984000
Ru     9.7781070144     0.7100110223    2.6528156000
Ru     8.4098059870     3.0799779218    2.6528156000
Ru     7.0415050007     5.4499447501    2.6528156000
Ru    12.5147089870     0.7100110223    2.6528156000
Ru    11.1464079597     3.0799779218    2.6528156000
Ru     9.7781069734     5.4499447501    2.6528156000
Ru    15.2513110418     0.7100110223    2.6528156000
Ru    13.8830100144     3.0799779218    2.6528156000
Ru    12.5147090281     5.4499447501    2.6528156000
Ru     8.4098060281     1.4999999651    0.5000000000
Ru     7.0415050007     3.8699668645    0.5000000000
Ru     5.6732040144     6.2399336929    0.5000000000
Ru    11.1464080007     1.4999999651    0.5000000000
Ru     9.7781069734     3.8699668645    0.5000000000
Ru     8.4098059870     6.2399336929    0.5000000000
Ru    13.8830100555     1.4999999651    0.5000000000
Ru    12.5147090281     3.8699668645    0.5000000000
Ru    11.1464080418     6.2399336929    0.5000000000
 O     9.5708338371     1.5371655483    9.9704310000
 C     9.6609048502     1.2305670130    8.8333122000
 H    11.7463865343     3.9016808604    8.2980402000
Ru    17.9839824056     0.7489587732    7.0154320000
Ru    16.5906057573     3.1204715072    6.9011332000
Ru    15.2550155936     5.4487192876    6.8713942000
Ru    20.7439601178     0.7074195347    6.8828888000
Ru    19.3570054671     3.0960696175    6.9060672000
Ru    17.9661538267     5.4709430593    6.8825286000
Ru    23.4217727780     0.7074504627    6.8760488000
Ru    22.0929039825     3.0749948058    6.8968560000
Ru    20.7062132360     5.4327026725    6.9194932000
Ru    16.5851811280     1.5200451210    4.7650604000
Ru    15.2464292448     3.8822770175    4.7964768000
Ru    13.8808110179     6.2160607798    4.7568614000
Ru    19.3710527735     1.5105390418    4.7624950000
Ru    17.9791890283     3.8683643641    4.7717950000
Ru    16.6084331458     6.2424930438    4.7959238000
Ru    22.0876544273     1.4943884761    4.8093164000
Ru    20.7191158081     3.8805484584    4.8045782000
Ru    19.3557712048     6.2399272940    4.7860556000
Ru    17.9879130144     0.7100110223    2.6528156000
Ru    16.6196119870     3.0799779218    2.6528156000
Ru    15.2513110007     5.4499447501    2.6528156000
Ru    20.7245149870     0.7100110223    2.6528156000
Ru    19.3562139597     3.0799779218    2.6528156000
Ru    17.9879129734     5.4499447501    2.6528156000
Ru    23.4611170418     0.7100110223    2.6528156000
Ru    22.0928160144     3.0799779218    2.6528156000
Ru    20.7245150281     5.4499447501    2.6528156000
Ru    16.6196120281     1.4999999651    0.5000000000
Ru    15.2513110007     3.8699668645    0.5000000000
Ru    13.8830100144     6.2399336929    0.5000000000
Ru    19.3562140007     1.4999999651    0.5000000000
Ru    17.9879129734     3.8699668645    0.5000000000
Ru    16.6196119870     6.2399336929    0.5000000000
Ru    22.0928160555     1.4999999651    0.5000000000
Ru    20.7245150281     3.8699668645    0.5000000000
Ru    19.3562140418     6.2399336929    0.5000000000
 O    17.8191948922     2.0192313102    9.7890630000
 C    17.8866512148     1.5726546880    8.6834030000
 H    20.2528732903     4.1047182194    8.1192098000
Ru    26.1537699525     0.6776673737    6.9466898000
Ru    24.7742971854     3.0720284841    6.9138098000
Ru    23.4451733933     5.4358978618    6.8756402000
Ru    28.9413937760     0.6773570265    6.8801732000
Ru    27.5073187385     3.0486961368    7.0199666000
Ru    26.1546574736     5.4675929453    6.8801266000
Ru    31.6355146411     0.6876198125    6.8692300000
Ru    30.2916153328     3.0503545922    6.8945582000
Ru    28.9071259636     5.4388550116    6.9111214000
Ru    24.8232041901     1.4945863446    4.7819658000
Ru    23.4464643853     3.8599566933    4.7972834000
Ru    22.0786367764     6.2353300323    4.7806194000
Ru    27.5502260170     1.4861327439    4.7875614000
Ru    26.1829793750     3.8631727147    4.7844548000
Ru    24.8178059553     6.2343571135    4.8035770000
Ru    30.2861489566     1.4995326313    4.7868450000
Ru    28.9325426610     3.8681763783    4.7700264000
Ru    27.5597277591     6.2259373559    4.7829628000
Ru    26.1977190144     0.7100110223    2.6528156000
Ru    24.8294179870     3.0799779218    2.6528156000
Ru    23.4611170007     5.4499447501    2.6528156000
Ru    28.9343209870     0.7100110223    2.6528156000
Ru    27.5660199597     3.0799779218    2.6528156000
Ru    26.1977189734     5.4499447501    2.6528156000
Ru    31.6709230418     0.7100110223    2.6528156000
Ru    30.3026220144     3.0799779218    2.6528156000
Ru    28.9343210281     5.4499447501    2.6528156000
Ru    24.8294180281     1.4999999651    0.5000000000
Ru    23.4611170007     3.8699668645    0.5000000000
Ru    22.0928160144     6.2399336929    0.5000000000
Ru    27.5660200007     1.4999999651    0.5000000000
Ru    26.1977189734     3.8699668645    0.5000000000
Ru    24.8294179870     6.2399336929    0.5000000000
Ru    30.3026220555     1.4999999651    0.5000000000
Ru    28.9343210281     3.8699668645    0.5000000000
Ru    27.5660200418     6.2399336929    0.5000000000
 O    26.1771936374     2.0939439938    9.6555884000
 C    26.4511756344     2.2351584213    8.4681458000
 H    28.5000823865     4.0260122602    8.1062334000
Ru    34.3819322167     0.6758956576    6.9124562000
Ru    32.9918657622     3.0571866378    6.9387278000
Ru    31.6576077216     5.4420569553    6.8683088000
Ru    37.1485532219     0.6766661575    6.8830688000
Ru    35.7437310367     3.0524742668    7.0941042000
Ru    34.3853733980     5.4810042796    6.8858202000
Ru    39.8489739227     0.6930904544    6.8734240000
Ru    38.4877131323     3.0651553433    6.8975506000
Ru    37.1199509145     5.4492651147    6.8934476000
Ru    33.0408290041     1.4977048181    4.7823676000
Ru    31.6559151470     3.8613633161    4.7904884000
Ru    30.2862249383     6.2319310021    4.8015938000
Ru    35.7569699646     1.4900310313    4.7896286000
Ru    34.3893062645     3.8642724030    4.7875828000
Ru    33.0306150613     6.2349450312    4.8068270000
Ru    38.4965877274     1.5090254151    4.7840008000
Ru    37.1348043008     3.8645673217    4.7745874000
Ru    35.7714406097     6.2209934866    4.7857592000
Ru    34.4075250144     0.7100110223    2.6528156000
Ru    33.0392239870     3.0799779218    2.6528156000
Ru    31.6709230007     5.4499447501    2.6528156000
Ru    37.1441269870     0.7100110223    2.6528156000
Ru    35.7758259597     3.0799779218    2.6528156000
Ru    34.4075249734     5.4499447501    2.6528156000
Ru    39.8807290418     0.7100110223    2.6528156000
Ru    38.5124280144     3.0799779218    2.6528156000
Ru    37.1441270281     5.4499447501    2.6528156000
Ru    33.0392240281     1.4999999651    0.5000000000
Ru    31.6709230007     3.8699668645    0.5000000000
Ru    30.3026220144     6.2399336929    0.5000000000
Ru    35.7758260007     1.4999999651    0.5000000000
Ru    34.4075249734     3.8699668645    0.5000000000
Ru    33.0392239870     6.2399336929    0.5000000000
Ru    38.5124280555     1.4999999651    0.5000000000
Ru    37.1441270281     3.8699668645    0.5000000000
Ru    35.7758260418     6.2399336929    0.5000000000
 O    34.1184537223     2.4038772858    9.6597822000
 C    34.4911050265     2.5757207382    8.5086664000
 H    36.5994751982     3.4153335163    8.4331334000
Ru    42.5957161961     0.6673302182    6.9006494000
Ru    41.1980038672     3.0602089144    6.9142384000
Ru    39.8727944695     5.4424839049    6.8645302000
Ru    45.3642310393     0.6726352705    6.8897668000
Ru    43.9605589248     3.0536309766    7.2389662000
Ru    42.6002654138     5.4746442602    6.8935750000
Ru    48.0680564698     0.6917203054    6.8644792000
Ru    46.7349255125     3.0606832869    6.8856426000
Ru    45.3479432357     5.4671832728    6.8860462000
Ru    41.2567200713     1.4969950367    4.7797464000
Ru    39.8659374343     3.8589330810    4.7947922000
Ru    38.5015606532     6.2328173223    4.8021794000
Ru    43.9734550112     1.4986564072    4.7928856000
Ru    42.6094914296     3.8616979080    4.7822310000
Ru    41.2478080395     6.2327915134    4.8091698000
Ru    46.7021920308     1.5010182450    4.7822456000
Ru    45.3353185245     3.8553543125    4.8038556000
Ru    43.9767261674     6.2144761963    4.7867646000
Ru    42.6173310144     0.7100110223    2.6528156000
Ru    41.2490299870     3.0799779218    2.6528156000
Ru    39.8807290007     5.4499447501    2.6528156000
Ru    45.3539329870     0.7100110223    2.6528156000
Ru    43.9856319597     3.0799779218    2.6528156000
Ru    42.6173309734     5.4499447501    2.6528156000
Ru    48.0905350418     0.7100110223    2.6528156000
Ru    46.7222340144     3.0799779218    2.6528156000
Ru    45.3539330281     5.4499447501    2.6528156000
Ru    41.2490300281     1.4999999651    0.5000000000
Ru    39.8807290007     3.8699668645    0.5000000000
Ru    38.5124280144     6.2399336929    0.5000000000
Ru    43.9856320007     1.4999999651    0.5000000000
Ru    42.6173309734     3.8699668645    0.5000000000
Ru    41.2490299870     6.2399336929    0.5000000000
Ru    46.7222340555     1.4999999651    0.5000000000
Ru    45.3539330281     3.8699668645    0.5000000000
Ru    43.9856320418     6.2399336929    0.5000000000
 O    42.1426322732     2.4653981888    9.6383596000
 C    42.7106540138     2.6354147523    8.5965722000
 H    44.3670195647     3.1970397326    8.7739764000
Ru    50.8070594823     0.6563061752    6.8883886000
Ru    49.3993912447     3.0652499050    6.9152722000
Ru    48.0835080636     5.4417289756    6.8677968000
Ru    53.5718659972     0.6694267856    6.8775906000
Ru    52.1297991240     3.0298684091    7.1724558000
Ru    50.8089497491     5.4694407373    6.8806700000
Ru    56.2752173114     0.6869705364    6.8633230000
Ru    54.9115083158     3.0641603127    6.8744262000
Ru    53.5550737010     5.4429127030    6.8790706000
Ru    49.4588035173     1.4982724015    4.7841672000
Ru    48.0831132130     3.8537149827    4.8098816000
Ru    46.7119954422     6.2351493697    4.8129040000
Ru    52.1857279348     1.4931465897    4.8045024000
Ru    50.8226940726     3.8598257290    4.8039072000
Ru    49.4605858661     6.2300178701    4.7934706000
Ru    54.9197017433     1.5010053761    4.7800850000
Ru    53.5639380338     3.8624498511    4.7676308000
Ru    52.1900438708     6.2202716895    4.7844862000
Ru    50.8271370144     0.7100110223    2.6528156000